Title: CKT1
Date: Tue Jul 27 05:26:06 2021
Plotname: Transient analysis
Flags: real
No. Variables: 4
No. Points: 1001    
Command: version 4.3.8
Variables:
 0 time S
 1 v(phi.Xb0) V
 2 v(phi.Xb0.XI1) V
 3 v(phi.Xb1.XI12) V
Values:
 0	0.000000000000000e+00
	-5.989910789594433e-10
	-8.555539388055422e-09
	1.921183877699835e-15
 1	1.000000000000000e-12
	-3.516167665230250e-03
	-2.589686848984457e-02
	2.206598296676675e-07
 2	2.000000000000000e-12
	-1.976002894122925e-02
	-7.719300546187646e-02
	4.923544974530486e-06
 3	3.000000000000000e-12
	-3.360408508509534e-02
	-1.138729825761443e-01
	2.503815179774798e-05
 4	4.000000000000000e-12
	-4.328893474812950e-02
	-1.559222829164431e-01
	5.619360062337379e-05
 5	5.000000000000000e-12
	-5.662978601999662e-02
	-1.954725705713044e-01
	7.726251011336544e-05
 6	5.999999999999999e-12
	-6.835496660865541e-02
	-2.351100024821496e-01
	9.539380613420572e-05
 7	6.999999999999999e-12
	-7.978878585729914e-02
	-2.739012267426480e-01
	1.231900565407760e-04
 8	8.000000000000000e-12
	-9.133788137855371e-02
	-3.116288812020750e-01
	1.504829931995089e-04
 9	9.000000000000000e-12
	-1.023410746868976e-01
	-3.486047589051348e-01
	1.740885867772511e-04
 10	9.999999999999999e-12
	-1.130807071247618e-01
	-3.842523507143069e-01
	2.005348658857846e-04
 11	1.100000000000000e-11
	-1.234077357052445e-01
	-4.186865730474561e-01
	2.293556291638101e-04
 12	1.200000000000000e-11
	-1.333021332913592e-01
	-4.516577727961615e-01
	2.566756579392105e-04
 13	1.300000000000000e-11
	-1.427254226164918e-01
	-4.830561827854129e-01
	2.839586991327669e-04
 14	1.400000000000000e-11
	-1.516252739871143e-01
	-5.127256464139850e-01
	3.139202718199358e-04
 15	1.500000000000000e-11
	-1.599627609282906e-01
	-5.404978696364466e-01
	3.433245821153133e-04
 16	1.600000000000000e-11
	-1.677011515016154e-01
	-5.662657725131170e-01
	3.721368404685622e-04
 17	1.700000000000000e-11
	-1.747979789927239e-01
	-5.898668700099787e-01
	4.033358237229781e-04
 18	1.800000000000000e-11
	-1.812050034333608e-01
	-6.111348310212793e-01
	4.342600393105810e-04
 19	1.900000000000000e-11
	-1.868997479073082e-01
	-6.299863620811011e-01
	4.648802375667789e-04
 20	2.000000000000000e-11
	-1.918479056763633e-01
	-6.462979860977942e-01
	4.973907226108879e-04
 21	2.100000000000000e-11
	-1.960005611217826e-01
	-6.599002772286849e-01
	5.297827256098134e-04
 22	2.200000000000000e-11
	-1.993452452007407e-01
	-6.707394936739655e-01
	5.578415944452802e-04
 23	2.300000000000000e-11
	-2.018637795247782e-01
	-6.787615479055016e-01
	5.737206440640145e-04
 24	2.400000000000000e-11
	-2.035325594236800e-01
	-6.838777619195184e-01
	5.818325234842337e-04
 25	2.500000000000000e-11
	-2.043418621281594e-01
	-6.860567530822266e-01
	5.956597123455439e-04
 26	2.600000000000000e-11
	-2.043127345584685e-01
	-6.855786539765756e-01
	6.107821436730063e-04
 27	2.700000000000000e-11
	-2.038959890324238e-01
	-6.845531683631774e-01
	6.669612024853854e-04
 28	2.800000000000000e-11
	-2.034655427963248e-01
	-6.822842450262315e-01
	8.385728275359214e-04
 29	2.900000000000000e-11
	-2.018567657550097e-01
	-6.750607442917884e-01
	1.010068501844131e-03
 30	3.000000000000000e-11
	-1.987577630304163e-01
	-6.649285642052385e-01
	1.084536294635169e-03
 31	3.100000000000000e-11
	-1.953356865197909e-01
	-6.527324709176694e-01
	1.225803137062091e-03
 32	3.200000000000001e-11
	-1.911053715671090e-01
	-6.372375654654122e-01
	1.383518959407465e-03
 33	3.300000000000001e-11
	-1.858158800377892e-01
	-6.191695149561581e-01
	1.481875667799215e-03
 34	3.400000000000001e-11
	-1.799152048058672e-01
	-5.985479906124371e-01
	1.611865934547740e-03
 35	3.500000000000001e-11
	-1.732700193632696e-01
	-5.754810104653610e-01
	1.740991903940330e-03
 36	3.600000000000002e-11
	-1.658994154736104e-01
	-5.501800115766191e-01
	1.848679894362918e-03
 37	3.700000000000002e-11
	-1.579012310456590e-01
	-5.227017069173934e-01
	1.960379751887213e-03
 38	3.800000000000002e-11
	-1.492937823060236e-01
	-4.932883145964501e-01
	2.072582038642420e-03
 39	3.900000000000003e-11
	-1.401342334152618e-01
	-4.620852715587611e-01
	2.170620424909914e-03
 40	4.000000000000003e-11
	-1.304593994897863e-01
	-4.292221884382529e-01
	2.264090364431978e-03
 41	4.100000000000003e-11
	-1.203208497628365e-01
	-3.948873815305244e-01
	2.359304981999318e-03
 42	4.200000000000004e-11
	-1.097691542421517e-01
	-3.592420189355494e-01
	2.437638811492098e-03
 43	4.300000000000004e-11
	-9.884239549391526e-02
	-3.224209943067431e-01
	2.512569827163917e-03
 44	4.400000000000004e-11
	-8.758850943434619e-02
	-2.845804329506105e-01
	2.585224385454382e-03
 45	4.500000000000004e-11
	-7.605468671900403e-02
	-2.458753954094698e-01
	2.640100830808285e-03
 46	4.600000000000005e-11
	-6.428062134565281e-02
	-2.064353614710850e-01
	2.693080935004595e-03
 47	4.700000000000005e-11
	-5.230826987530313e-02
	-1.663951744713566e-01
	2.738815091170026e-03
 48	4.800000000000005e-11
	-4.018180969631715e-02
	-1.258953859792970e-01
	2.767958519716390e-03
 49	4.900000000000006e-11
	-2.794022079717567e-02
	-8.505949167829878e-02
	2.795527966520696e-03
 50	5.000000000000006e-11
	-1.562290861016464e-02
	-4.401169009818445e-02
	2.812124523706122e-03
 51	5.100000000000006e-11
	-3.269700506350749e-03
	-2.879301432062085e-03
	3.121978094943250e-03
 52	5.200000000000007e-11
	9.071597033131500e-03
	3.816427869374515e-02
	5.423508291944896e-03
 53	5.300000000000007e-11
	2.132978844736735e-02
	7.888942296531137e-02
	8.780486299623341e-03
 54	5.400000000000007e-11
	3.347069105556527e-02
	1.193124464998332e-01
	1.084754184890906e-02
 55	5.500000000000008e-11
	4.554369394731456e-02
	1.595206735017058e-01
	1.355600407773792e-02
 56	5.600000000000008e-11
	5.749224466845620e-02
	1.991608673388190e-01
	1.635921383339946e-02
 57	5.700000000000008e-11
	6.919007999168333e-02
	2.380741367764221e-01
	1.875630421269958e-02
 58	5.800000000000008e-11
	8.066765783241044e-02
	2.763232004769420e-01
	2.137705460773715e-02
 59	5.900000000000008e-11
	9.190565343195589e-02
	3.136651196195838e-01
	2.382426396416424e-02
 60	6.000000000000008e-11
	1.028094457412823e-01
	3.499685674017120e-01
	2.619623019870828e-02
 61	6.100000000000007e-11
	1.133699673554089e-01
	3.851639450950139e-01
	2.851926380837734e-02
 62	6.200000000000007e-11
	1.235492493333719e-01
	4.190562009854973e-01
	3.072196697133119e-02
 63	6.300000000000007e-11
	1.332951646937918e-01
	4.515390880674326e-01
	3.282481907795767e-02
 64	6.400000000000006e-11
	1.425793610487677e-01
	4.824886698712822e-01
	3.482104662518573e-02
 65	6.500000000000006e-11
	1.513524087473528e-01
	5.117251545338507e-01
	3.668620859621887e-02
 66	6.600000000000006e-11
	1.595771810151875e-01
	5.391328620103031e-01
	3.841275237975141e-02
 67	6.700000000000005e-11
	1.672208349767857e-01
	5.645866035846538e-01
	4.000576108051399e-02
 68	6.800000000000005e-11
	1.742337754245885e-01
	5.879128614512688e-01
	4.143621600537110e-02
 69	6.900000000000005e-11
	1.805802459774821e-01
	6.089847037521494e-01
	4.270142777021958e-02
 70	7.000000000000004e-11
	1.862320866871880e-01
	6.276984031724954e-01
	4.380482972146904e-02
 71	7.100000000000004e-11
	1.911457333323810e-01
	6.438999797110255e-01
	4.472022589096389e-02
 72	7.200000000000004e-11
	1.952849731306725e-01
	6.574603875840819e-01
	4.544922539919879e-02
 73	7.300000000000003e-11
	1.986333409580860e-01
	6.683191935231380e-01
	4.599467466993166e-02
 74	7.400000000000003e-11
	2.011594360259798e-01
	6.763665160834121e-01
	4.633708968490231e-02
 75	7.500000000000003e-11
	2.028395796057499e-01
	6.815204403918137e-01
	4.648379745209259e-02
 76	7.600000000000002e-11
	2.036491225140824e-01
	6.837011283093508e-01
	7.172116986687065e-02
 77	7.700000000000002e-11
	2.035965577302147e-01
	6.829268999020122e-01
	1.232966750298218e-01
 78	7.800000000000001e-11
	2.026574602921499e-01
	6.791377225281179e-01
	1.677598184775169e-01
 79	7.900000000000001e-11
	2.008511740319437e-01
	6.723950582077863e-01
	2.194185159090928e-01
 80	8.000000000000001e-11
	1.981809097454304e-01
	6.627286084775222e-01
	2.689124730053594e-01
 81	8.100000000000000e-11
	1.946566798585582e-01
	6.501782978190722e-01
	3.187646024487963e-01
 82	8.200000000000000e-11
	1.903162323638206e-01
	6.348651503907534e-01
	3.681510024368274e-01
 83	8.300000000000000e-11
	1.851754494687681e-01
	6.168806324543292e-01
	4.165845850181149e-01
 84	8.399999999999999e-11
	1.792566938529417e-01
	5.963112741154714e-01
	4.642232724475471e-01
 85	8.499999999999999e-11
	1.726202614039881e-01
	5.733476279522418e-01
	5.106832440072084e-01
 86	8.599999999999999e-11
	1.652968425633402e-01
	5.481249329706199e-01
	5.559155669447903e-01
 87	8.699999999999998e-11
	1.573155329519525e-01
	5.207538446073057e-01
	5.996577227308088e-01
 88	8.799999999999998e-11
	1.487398661861447e-01
	4.914404688447654e-01
	6.417495465194444e-01
 89	8.899999999999998e-11
	1.396119224218685e-01
	4.603447309516366e-01
	6.819833623221770e-01
 90	8.999999999999997e-11
	1.299682755809577e-01
	4.275955389316370e-01
	7.200870707626030e-01
 91	9.099999999999997e-11
	1.198643300701257e-01
	3.933765801651693e-01
	7.558320279756432e-01
 92	9.199999999999997e-11
	1.093474817314298e-01
	3.578525867873968e-01
	7.889726525098248e-01
 93	9.299999999999996e-11
	9.845731999713388e-02
	3.211565244416742e-01
	8.191890298459182e-01
 94	9.399999999999996e-11
	8.724139121907465e-02
	2.834451458992228e-01
	8.461936802130180e-01
 95	9.499999999999996e-11
	7.574674777465218e-02
	2.448731988400036e-01
	8.697396102720056e-01
 96	9.599999999999995e-11
	6.401319743320176e-02
	2.055700351514236e-01
	8.895009899958810e-01
 97	9.699999999999995e-11
	5.208256547191729e-02
	1.656704009362855e-01
	9.051786063837947e-01
 98	9.799999999999995e-11
	3.999893717136051e-02
	1.253144442886182e-01
	9.166053203184371e-01
 99	9.899999999999994e-11
	2.780117648571374e-02
	8.462536058630228e-02
	9.235521258929974e-01
 100	9.999999999999994e-11
	1.552819709969837e-02
	4.372608804677855e-02
	9.258042383761333e-01
 101	1.009999999999999e-10
	3.220394005503125e-03
	2.742821697628018e-03
	9.233900215803019e-01
 102	1.019999999999999e-10
	-9.084578275174513e-03
	-3.820640917798553e-02
	9.162932644817434e-01
 103	1.029999999999999e-10
	-2.134749835244525e-02
	-7.899807572679451e-02
	9.044790891086516e-01
 104	1.039999999999999e-10
	-3.353158700659475e-02
	-1.195172449656641e-01
	8.882254663494011e-01
 105	1.049999999999999e-10
	-4.559998703754645e-02
	-1.596475493504025e-01
	8.677420771223016e-01
 106	1.059999999999999e-10
	-5.751075816186035e-02
	-1.992551475537855e-01
	8.431932245341939e-01
 107	1.069999999999999e-10
	-6.922963829547696e-02
	-2.382307217282679e-01
	8.149919828736860e-01
 108	1.079999999999999e-10
	-8.071969246805208e-02
	-2.764548862468694e-01
	7.834647135981543e-01
 109	1.089999999999999e-10
	-9.193667559202531e-02
	-3.137830459613186e-01
	7.488809727828791e-01
 110	1.099999999999999e-10
	-1.028455402877734e-01
	-3.500994053931056e-01
	7.116201993763943e-01
 111	1.109999999999999e-10
	-1.134098873311459e-01
	-3.852823307343060e-01
	6.720037848163375e-01
 112	1.119999999999999e-10
	-1.235838536179908e-01
	-4.191775108259614e-01
	6.302868686849992e-01
 113	1.129999999999999e-10
	-1.333293173001643e-01
	-4.516545995183858e-01
	5.867505922028738e-01
 114	1.139999999999999e-10
	-1.426117253863035e-01
	-4.825937650966202e-01
	5.416498331288400e-01
 115	1.149999999999999e-10
	-1.513851820473487e-01
	-5.118361564349783e-01
	4.951839421272982e-01
 116	1.159999999999999e-10
	-1.596070550665730e-01
	-5.392324231290104e-01
	4.475429069845404e-01
 117	1.169999999999999e-10
	-1.672469600811365e-01
	-5.646733760776934e-01
	3.989155342999513e-01
 118	1.179999999999999e-10
	-1.742616855733399e-01
	-5.880061330085339e-01
	3.494514934592089e-01
 119	1.189999999999999e-10
	-1.806038907733932e-01
	-6.090631855092447e-01
	2.992813099421041e-01
 120	1.199999999999999e-10
	-1.862509886476920e-01
	-6.277608188351216e-01
	2.485472558705947e-01
 121	1.209999999999999e-10
	-1.911666736177702e-01
	-6.439693030186094e-01
	1.973662209002207e-01
 122	1.219999999999999e-10
	-1.953007256994839e-01
	-6.575119738299249e-01
	1.458387269875792e-01
 123	1.229999999999999e-10
	-1.986436092671185e-01
	-6.683520373484348e-01
	9.407868962327867e-02
 124	1.239999999999999e-10
	-2.011702911447271e-01
	-6.764013579480589e-01
	4.218492252046290e-02
 125	1.249999999999999e-10
	-2.028368449593790e-01
	-6.815088319911938e-01
	-9.748757674961191e-03
 126	1.259999999999998e-10
	-2.036483593797334e-01
	-6.836929343399505e-01
	-6.162329672873952e-02
 127	1.269999999999998e-10
	-2.035963703864708e-01
	-6.829277368977642e-01
	-1.133442838353288e-01
 128	1.279999999999998e-10
	-2.026574531142882e-01
	-6.791383937215929e-01
	-1.648101095511659e-01
 129	1.289999999999998e-10
	-2.008477418331953e-01
	-6.723869344537232e-01
	-2.159203783517297e-01
 130	1.299999999999998e-10
	-1.981819808169854e-01
	-6.627320500983139e-01
	-2.665736779416313e-01
 131	1.309999999999998e-10
	-1.946609682140186e-01
	-6.501867262334362e-01
	-3.166495738265551e-01
 132	1.319999999999998e-10
	-1.903119573596936e-01
	-6.348546090471433e-01
	-3.660279167883663e-01
 133	1.329999999999998e-10
	-1.851714996243027e-01
	-6.168708953722927e-01
	-4.145901528822982e-01
 134	1.339999999999998e-10
	-1.792620570139991e-01
	-5.963238104551495e-01
	-4.621859867287147e-01
 135	1.349999999999998e-10
	-1.726183547931310e-01
	-5.733426182376871e-01
	-5.086554162204577e-01
 136	1.359999999999998e-10
	-1.652919690687518e-01
	-5.481115215493213e-01
	-5.538532573964585e-01
 137	1.369999999999998e-10
	-1.573199117285029e-01
	-5.207655292420745e-01
	-5.975891626058433e-01
 138	1.379999999999998e-10
	-1.487394405467579e-01
	-4.914396676170587e-01
	-6.396408531625957e-01
 139	1.389999999999998e-10
	-1.396087319164251e-01
	-4.603353122323446e-01
	-6.798305275600953e-01
 140	1.399999999999998e-10
	-1.299716613553661e-01
	-4.276054656263003e-01
	-7.179227185870700e-01
 141	1.409999999999998e-10
	-1.198645968554393e-01
	-3.933777134002057e-01
	-7.536124438969931e-01
 142	1.419999999999998e-10
	-1.093456188940658e-01
	-3.578468469149892e-01
	-7.866955727198564e-01
 143	1.429999999999998e-10
	-9.845933551347201e-02
	-3.211626183790801e-01
	-8.168979447161629e-01
 144	1.439999999999998e-10
	-8.724190163255979e-02
	-2.834468118898448e-01
	-8.438441321225134e-01
 145	1.449999999999998e-10
	-7.574580299909399e-02
	-2.448702992621122e-01
	-8.673245458245381e-01
 146	1.459999999999998e-10
	-6.401362978850708e-02
	-2.055713225509445e-01
	-8.870644221813322e-01
 147	1.469999999999998e-10
	-5.208301106825467e-02
	-1.656717447669578e-01
	-9.027058024654935e-01
 148	1.479999999999998e-10
	-3.999860294661295e-02
	-1.253134671126828e-01
	-9.140721704453052e-01
 149	1.489999999999998e-10
	-2.780104176073807e-02
	-8.462497640260737e-02
	-9.209952899840490e-01
 150	1.499999999999998e-10
	-1.552833934538228e-02
	-4.372643744280866e-02
	-9.232532492130592e-01
 151	1.509999999999998e-10
	-3.220415115356739e-03
	-2.742940053632777e-03
	-9.207996937867942e-01
 152	1.519999999999998e-10
	9.084382492808055e-03
	3.820566253142265e-02
	-9.136850017435363e-01
 153	1.529999999999998e-10
	2.134787316737564e-02
	7.899937275056175e-02
	-9.019263899504385e-01
 154	1.539999999999998e-10
	3.353144179151386e-02
	1.195167600408334e-01
	-8.856632202461785e-01
 155	1.549999999999997e-10
	4.559891985508442e-02
	1.596440094905208e-01
	-8.651813534246762e-01
 156	1.559999999999997e-10
	5.751186836240176e-02
	1.992588035264834e-01
	-8.407156711086192e-01
 157	1.569999999999997e-10
	6.922959071254207e-02
	2.382305660790024e-01
	-8.125298359597116e-01
 158	1.579999999999997e-10
	8.071807945006208e-02
	2.764495943579114e-01
	-7.810264185150493e-01
 159	1.589999999999997e-10
	9.193875662979108e-02
	3.137898791495586e-01
	-7.465235613289699e-01
 160	1.599999999999997e-10
	1.028458149785647e-01
	3.501003078379213e-01
	-7.092900888474741e-01
 161	1.609999999999997e-10
	1.134079372414948e-01
	3.852758984887699e-01
	-6.697054164054412e-01
 162	1.619999999999997e-10
	1.235865530643230e-01
	4.191864458986913e-01
	-6.280528553271529e-01
 163	1.629999999999997e-10
	1.333301474327609e-01
	4.516573540874498e-01
	-5.845469361936629e-01
 164	1.639999999999997e-10
	1.426096580285386e-01
	4.825868719559946e-01
	-5.394755712375610e-01
 165	1.649999999999997e-10
	1.513865708087095e-01
	5.118408088545697e-01
	-4.930517219122164e-01
 166	1.659999999999997e-10
	1.596086756994246e-01
	5.392378655273481e-01
	-4.454404776133060e-01
 167	1.669999999999997e-10
	1.672450139655159e-01
	5.646668112433618e-01
	-3.968358930463781e-01
 168	1.679999999999997e-10
	1.742608516891785e-01
	5.880033161814727e-01
	-3.473970173479365e-01
 169	1.689999999999997e-10
	1.806065149843209e-01
	6.090720913940302e-01
	-2.972506278911248e-01
 170	1.699999999999997e-10
	1.862578121214063e-01
	6.277840418426888e-01
	-2.465374103290479e-01
 171	1.709999999999997e-10
	1.547286409855858e-01
	6.825100141837772e-01
	-1.953652955159928e-01
 172	1.719999999999997e-10
	8.209031716248455e-02
	7.773849006181922e-01
	-1.438533001444423e-01
 173	1.729999999999997e-10
	3.386053343328840e-02
	8.510054525300925e-01
	-9.210324176604973e-02
 174	1.739999999999997e-10
	-2.168093205153997e-02
	9.332886996281464e-01
	-4.021716379757075e-02
 175	1.749999999999997e-10
	-7.811926327343843e-02
	1.015849389424250e+00
	1.171031389029128e-02
 176	1.759999999999997e-10
	-1.320329702501442e-01
	1.099090243730969e+00
	6.358011138616784e-02
 177	1.769999999999997e-10
	-1.874362914101708e-01
	1.186107084126636e+00
	1.152983026315580e-01
 178	1.779999999999997e-10
	-2.422825842769260e-01
	1.275620212973127e+00
	1.667681736496987e-01
 179	1.789999999999997e-10
	-2.969803454857920e-01
	1.369799611655404e+00
	2.178789802681256e-01
 180	1.799999999999997e-10
	-3.513642314727622e-01
	1.470301460009340e+00
	2.685343834747529e-01
 181	1.809999999999997e-10
	-4.047887240444599e-01
	1.579704154869465e+00
	3.186246831917658e-01
 182	1.819999999999997e-10
	-4.564977654633947e-01
	1.703223014850962e+00
	3.680112011076020e-01
 183	1.829999999999997e-10
	-5.048259150060792e-01
	1.849343482023363e+00
	4.165814458033728e-01
 184	1.839999999999996e-10
	-5.464131573859619e-01
	2.035811297072403e+00
	4.642001720909017e-01
 185	1.849999999999996e-10
	-5.730799479552258e-01
	2.308368012242500e+00
	5.106912690593947e-01
 186	1.859999999999996e-10
	-5.636260206417125e-01
	2.796648168185634e+00
	5.559041352249704e-01
 187	1.869999999999996e-10
	-4.540978522808751e-01
	3.905815316901657e+00
	5.996692650692806e-01
 188	1.879999999999996e-10
	-1.181060110606626e-01
	5.747590376016280e+00
	6.417621435141692e-01
 189	1.889999999999996e-10
	1.119585873003871e-01
	5.925583115729763e+00
	6.819738979903424e-01
 190	1.899999999999996e-10
	-1.746945436109337e-01
	5.645086041141257e+00
	7.201121731533130e-01
 191	1.909999999999996e-10
	-2.275857039127790e-01
	5.730602692613658e+00
	7.558481348569005e-01
 192	1.919999999999996e-10
	-1.366653416666956e-01
	5.683303862885884e+00
	7.889790922843430e-01
 193	1.929999999999996e-10
	-1.918762766652679e-01
	5.658701355984538e+00
	8.191791266603854e-01
 194	1.939999999999996e-10
	-2.035886421933983e-01
	5.602745770635776e+00
	8.462100403769550e-01
 195	1.949999999999996e-10
	-2.074356211022795e-01
	5.566885119584071e+00
	8.697585850053313e-01
 196	1.959999999999996e-10
	-2.232867116022781e-01
	5.528548606288370e+00
	8.894820208050056e-01
 197	1.969999999999996e-10
	-2.349760357534186e-01
	5.481520979220157e+00
	9.051920054844509e-01
 198	1.979999999999996e-10
	-2.480901125791697e-01
	5.438722226700327e+00
	9.166416289674305e-01
 199	1.989999999999996e-10
	-2.608788711432790e-01
	5.393593147879480e+00
	9.235235521519345e-01
 200	1.999999999999996e-10
	-2.739168256243586e-01
	5.348207962671593e+00
	9.258121755941522e-01
 201	2.009999999999996e-10
	-2.868935023678466e-01
	5.303620565487382e+00
	9.234327447842030e-01
 202	2.019999999999996e-10
	-2.993333891060820e-01
	5.260126173565773e+00
	9.162585311715017e-01
 203	2.029999999999996e-10
	-3.111319032398827e-01
	5.219803568477539e+00
	9.044806455807493e-01
 204	2.039999999999996e-10
	-3.213537432287464e-01
	5.185712630683273e+00
	8.882581451914151e-01
 205	2.049999999999996e-10
	-3.284358220613981e-01
	5.164834820810278e+00
	8.677156106665713e-01
 206	2.059999999999996e-10
	-3.288180841560796e-01
	5.173703509527834e+00
	8.431899283752733e-01
 207	2.069999999999996e-10
	-3.124544881084708e-01
	5.260309948506531e+00
	8.150131497281333e-01
 208	2.079999999999996e-10
	-2.482173233303179e-01
	5.557336149130059e+00
	7.834585037453983e-01
 209	2.089999999999996e-10
	-1.217862851318623e-01
	5.926101559215082e+00
	7.488801002509961e-01
 210	2.099999999999996e-10
	-9.752575903798802e-02
	5.817975690283610e+00
	7.116344133476729e-01
 211	2.109999999999996e-10
	-1.629887061829983e-01
	5.831181279452429e+00
	6.720043204622811e-01
 212	2.119999999999996e-10
	-1.204179173144073e-01
	5.868022113170900e+00
	6.302809011064193e-01
 213	2.129999999999995e-10
	-1.423251477363131e-01
	5.732234627560811e+00
	5.867571018663948e-01
 214	2.139999999999995e-10
	-1.811276713708565e-01
	5.743721248380764e+00
	5.416554628952861e-01
 215	2.149999999999995e-10
	-1.581169324247726e-01
	5.723457537015063e+00
	4.951787428136423e-01
 216	2.159999999999995e-10
	-1.761184389597352e-01
	5.676020969130890e+00
	4.475458765700462e-01
 217	2.169999999999995e-10
	-1.908206752731971e-01
	5.658213218343060e+00
	3.989223784571099e-01
 218	2.179999999999995e-10
	-1.897248657579884e-01
	5.632995620046731e+00
	3.494475732346757e-01
 219	2.189999999999995e-10
	-1.992893212703885e-01
	5.611144514662999e+00
	2.992825204841067e-01
 220	2.199999999999995e-10
	-2.055563206324722e-01
	5.591655175610165e+00
	2.485526879604912e-01
 221	2.209999999999995e-10
	-2.095676902027289e-01
	5.574897903546639e+00
	1.973640006923489e-01
 222	2.219999999999995e-10
	-2.142598498233998e-01
	5.561420156262974e+00
	1.458393314883382e-01
 223	2.229999999999995e-10
	-2.175671048972757e-01
	5.550091216475662e+00
	9.408084040026381e-02
 224	2.239999999999995e-10
	-2.200621262559447e-01
	5.542193601186850e+00
	4.218501273842519e-02
 225	2.249999999999995e-10
	-2.216876102873636e-01
	5.537341491305771e+00
	-9.747939651155056e-03
 226	2.259999999999995e-10
	-2.223628031189513e-01
	5.535575266709627e+00
	-6.162343794787610e-02
 227	2.269999999999995e-10
	-2.221050602807849e-01
	5.537185690257910e+00
	-1.133428957027987e-01
 228	2.279999999999995e-10
	-2.208446093776448e-01
	5.542169412923384e+00
	-1.648083189300351e-01
 229	2.289999999999995e-10
	-2.185702238190600e-01
	5.550721542888359e+00
	-2.159221109915650e-01
 230	2.299999999999995e-10
	-2.151498120353428e-01
	5.563359348614327e+00
	-2.665728801706855e-01
 231	2.309999999999995e-10
	-2.102689784698014e-01
	5.581512484129080e+00
	-3.166458795809037e-01
 232	2.319999999999995e-10
	-2.029852165028838e-01
	5.609577362517695e+00
	-3.660321839122838e-01
 233	2.329999999999995e-10
	-1.911395768412508e-01
	5.653878677166285e+00
	-4.145873065133073e-01
 234	2.339999999999995e-10
	-1.771154816956650e-01
	5.693204616116748e+00
	-4.621861745451430e-01
 235	2.349999999999995e-10
	-1.720597994508656e-01
	5.702753701311193e+00
	-5.086588967509321e-01
 236	2.359999999999995e-10
	-1.694882268695928e-01
	5.729171249573133e+00
	-5.538604530115657e-01
 237	2.369999999999995e-10
	-1.565576445990053e-01
	5.765456148427534e+00
	-5.975766791753683e-01
 238	2.379999999999995e-10
	-1.488534247445920e-01
	5.783746956007809e+00
	-6.396434919213981e-01
 239	2.389999999999995e-10
	-1.429919251050930e-01
	5.819514838595177e+00
	-6.798480076262818e-01
 240	2.399999999999995e-10
	-1.294978950768729e-01
	5.854975992337213e+00
	-7.179019259899300e-01
 241	2.409999999999995e-10
	-1.206534189655664e-01
	5.884434441456816e+00
	-7.536125102188633e-01
 242	2.419999999999995e-10
	-1.113277544644069e-01
	5.922619982661778e+00
	-7.867198935412211e-01
 243	2.429999999999995e-10
	-9.874798861836227e-02
	5.959134827760016e+00
	-8.168706928536622e-01
 244	2.439999999999995e-10
	-8.830443521277245e-02
	5.996089939482815e+00
	-8.438392629433161e-01
 245	2.449999999999995e-10
	-7.692998958977117e-02
	6.035228005292859e+00
	-8.673509689737340e-01
 246	2.459999999999995e-10
	-6.480658154830937e-02
	6.074328098898729e+00
	-8.870436747041296e-01
 247	2.469999999999995e-10
	-5.311712486228093e-02
	6.114249805226830e+00
	-9.026936494554788e-01
 248	2.479999999999995e-10
	-4.099343997581410e-02
	6.154604720444029e+00
	-9.140973358682957e-01
 249	2.489999999999995e-10
	-2.875893741979442e-02
	6.195280641263274e+00
	-9.209872832362774e-01
 250	2.499999999999994e-10
	-1.652389560130991e-02
	6.236188682889043e+00
	-9.232331088544850e-01
 251	2.509999999999994e-10
	-4.204254567193062e-03
	6.277154155618800e+00
	-9.208194374214916e-01
 252	2.519999999999994e-10
	8.099597170350900e-03
	6.318114224499427e+00
	-9.136927434957094e-01
 253	2.529999999999994e-10
	2.036462392924689e-02
	6.358916939801464e+00
	-9.019007817957708e-01
 254	2.539999999999994e-10
	3.255782474518884e-02
	6.399467713004409e+00
	-8.856749720694155e-01
 255	2.549999999999994e-10
	4.464333209661985e-02
	6.439668301789274e+00
	-8.652015314304111e-01
 256	2.559999999999994e-10
	5.659405687575694e-02
	6.479434910127992e+00
	-8.406893996836726e-01
 257	2.569999999999994e-10
	6.840627015026789e-02
	6.518805604592053e+00
	-8.125400007425660e-01
 258	2.579999999999994e-10
	8.013329698331319e-02
	6.558031109326661e+00
	-7.810321753901036e-01
 259	2.589999999999994e-10
	9.184348594091790e-02
	6.597090841934669e+00
	-7.465185524332837e-01
 260	2.599999999999994e-10
	1.031466300276598e-01
	6.633968221687267e+00
	-7.092904124033428e-01
 261	2.609999999999994e-10
	1.133692915731947e-01
	6.667732758117674e+00
	-6.697251433395268e-01
 262	2.619999999999994e-10
	1.232099494151910e-01
	6.701814115452335e+00
	-6.280365690024698e-01
 263	2.629999999999994e-10
	1.334475432938196e-01
	6.735331584479996e+00
	-5.845448414369545e-01
 264	2.639999999999994e-10
	1.426860630210363e-01
	6.765206973635172e+00
	-5.394864148168731e-01
 265	2.649999999999994e-10
	1.510493407734186e-01
	6.794532154984188e+00
	-4.930450482698244e-01
 266	2.659999999999994e-10
	1.596537871829818e-01
	6.822660942792125e+00
	-4.454376887149357e-01
 267	2.669999999999994e-10
	1.672920521376038e-01
	6.847427389483769e+00
	-3.968412828442830e-01
 268	2.679999999999994e-10
	1.740251214196910e-01
	6.870838580793419e+00
	-3.473952680119586e-01
 269	2.689999999999994e-10
	1.805932659451374e-01
	6.892200466518305e+00
	-2.972482050778686e-01
 270	2.699999999999994e-10
	1.862382123144562e-01
	6.910649868246342e+00
	-2.465374341469438e-01
 271	2.709999999999994e-10
	2.274985230049321e-01
	6.888455370223558e+00
	-1.953651467165589e-01
 272	2.719999999999994e-10
	3.097700186025063e-01
	6.824172203486602e+00
	-1.438533667137675e-01
 273	2.729999999999994e-10
	3.690436360910603e-01
	6.781474502381223e+00
	-9.210320242529972e-02
 274	2.739999999999994e-10
	4.355884983551649e-01
	6.727898858234124e+00
	-4.021704702872649e-02
 275	2.749999999999994e-10
	5.043232261554477e-01
	6.675543905017013e+00
	1.171024074465385e-02
 276	2.759999999999994e-10
	5.721882021871219e-01
	6.622009788995632e+00
	6.358017187852527e-02
 277	2.769999999999994e-10
	6.424588247574499e-01
	6.565809263352848e+00
	1.152983883335265e-01
 278	2.779999999999994e-10
	7.146297067016656e-01
	6.509408149577130e+00
	1.667680995928729e-01
 279	2.789999999999993e-10
	7.894083023912843e-01
	6.451107534879425e+00
	2.178790549825544e-01
 280	2.799999999999993e-10
	8.672713124968654e-01
	6.391734232652281e+00
	2.685344410155941e-01
 281	2.809999999999993e-10
	9.492109639294183e-01
	6.331225376776544e+00
	3.186246147394688e-01
 282	2.819999999999993e-10
	1.036541120356332e+00
	6.269658035296122e+00
	3.680124741690809e-01
 283	2.829999999999993e-10
	1.130846728742499e+00
	6.207363030057321e+00
	4.165853536967649e-01
 284	2.839999999999993e-10
	1.234842138413108e+00
	6.144697148540274e+00
	4.641997298040484e-01
 285	2.849999999999993e-10
	1.353105298789446e+00
	6.082375625985792e+00
	5.106888170956195e-01
 286	2.859999999999993e-10
	1.493169825097865e+00
	6.021558296125503e+00
	5.559057930255578e-01
 287	2.869999999999993e-10
	1.670283630611470e+00
	5.964887562300248e+00
	5.996760585053356e-01
 288	2.879999999999993e-10
	1.924434462635137e+00
	5.919191666847272e+00
	6.417575187699101e-01
 289	2.889999999999993e-10
	2.371227260078643e+00
	5.901776138668831e+00
	6.819751491724744e-01
 290	2.899999999999993e-10
	3.471622129961747e+00
	5.974053330649087e+00
	7.201120954424802e-01
 291	2.909999999999993e-10
	6.214241584414483e+00
	6.404901636989127e+00
	7.558551644225394e-01
 292	2.919999999999993e-10
	6.960994986288937e+00
	6.944047566529218e+00
	7.889688478645214e-01
 293	2.929999999999993e-10
	6.215424738943387e+00
	6.620795960465495e+00
	8.191797832908463e-01
 294	2.939999999999993e-10
	6.329841536111465e+00
	6.455291476108914e+00
	8.462236858053382e-01
 295	2.949999999999993e-10
	6.405751589565427e+00
	6.586101145064053e+00
	8.697427318040700e-01
 296	2.959999999999993e-10
	6.342220536571720e+00
	6.487368413379272e+00
	8.894802419373962e-01
 297	2.969999999999993e-10
	6.326743935658482e+00
	6.437048621948982e+00
	9.052060591571824e-01
 298	2.979999999999993e-10
	6.326779940370448e+00
	6.414106547856737e+00
	9.166200203961812e-01
 299	2.989999999999993e-10
	6.312230379455963e+00
	6.367770879155781e+00
	9.235186054073856e-01
 300	2.999999999999993e-10
	6.297160127243678e+00
	6.326111563615725e+00
	9.258246802252280e-01
 301	3.009999999999993e-10
	6.286777698459996e+00
	6.285988877989840e+00
	9.234179411164313e-01
 302	3.019999999999993e-10
	6.274321957896384e+00
	6.245222754087287e+00
	9.162506940819605e-01
 303	3.029999999999993e-10
	6.261660319754029e+00
	6.204029248250191e+00
	9.044897400639590e-01
 304	3.039999999999993e-10
	6.249665987624685e+00
	6.163654126770223e+00
	8.882625336828762e-01
 305	3.049999999999993e-10
	6.237618930057293e+00
	6.123568365829152e+00
	8.677064089492217e-01
 306	3.059999999999993e-10
	6.225654023783976e+00
	6.083900118384223e+00
	8.431950857335999e-01